t 0.000178 /NodeList/0/DeviceList/0/$ns3::WifiNetDevice/Phy/State/Tx OfdmRate6Mbps ns3::WifiMacHeader (QOSDATA ) ns3::LlcSnapHeader (type 0x800) ns3::Ipv4Header (tos 0x0 DSCP Default ECN Not-ECT ttl 64 id 0 protocol 17 offset (bytes) 0 flags [none] length: 145 192.168.0.1 > 192.168.255.255) ns3::UdpHeader (length: 125 49153 > 8833) Payload (size=117) 
r 0.000446013 OfdmRate6Mbps /NodeList/2/DeviceList/0/$ns3::WifiNetDevice/Phy/State/RxOk ns3::WifiMacHeader (QOSDATA ) ns3::LlcSnapHeader (type 0x800) ns3::Ipv4Header (tos 0x0 DSCP Default ECN Not-ECT ttl 64 id 0 protocol 17 offset (bytes) 0 flags [none] length: 145 192.168.0.1 > 192.168.255.255) ns3::UdpHeader (length: 125 49153 > 8833) Payload (size=117) 
r 0.000446017 OfdmRate6Mbps /NodeList/6/DeviceList/0/$ns3::WifiNetDevice/Phy/State/RxOk ns3::WifiMacHeader (QOSDATA ) ns3::LlcSnapHeader (type 0x800) ns3::Ipv4Header (tos 0x0 DSCP Default ECN Not-ECT ttl 64 id 0 protocol 17 offset (bytes) 0 flags [none] length: 145 192.168.0.1 > 192.168.255.255) ns3::UdpHeader (length: 125 49153 > 8833) Payload (size=117) 
r 0.00044603 OfdmRate6Mbps /NodeList/9/DeviceList/0/$ns3::WifiNetDevice/Phy/State/RxOk ns3::WifiMacHeader (QOSDATA ) ns3::LlcSnapHeader (type 0x800) ns3::Ipv4Header (tos 0x0 DSCP Default ECN Not-ECT ttl 64 id 0 protocol 17 offset (bytes) 0 flags [none] length: 145 192.168.0.1 > 192.168.255.255) ns3::UdpHeader (length: 125 49153 > 8833) Payload (size=117) 
r 0.000446036 OfdmRate6Mbps /NodeList/4/DeviceList/0/$ns3::WifiNetDevice/Phy/State/RxOk ns3::WifiMacHeader (QOSDATA ) ns3::LlcSnapHeader (type 0x800) ns3::Ipv4Header (tos 0x0 DSCP Default ECN Not-ECT ttl 64 id 0 protocol 17 offset (bytes) 0 flags [none] length: 145 192.168.0.1 > 192.168.255.255) ns3::UdpHeader (length: 125 49153 > 8833) Payload (size=117) 
r 0.000446037 OfdmRate6Mbps /NodeList/5/DeviceList/0/$ns3::WifiNetDevice/Phy/State/RxOk ns3::WifiMacHeader (QOSDATA ) ns3::LlcSnapHeader (type 0x800) ns3::Ipv4Header (tos 0x0 DSCP Default ECN Not-ECT ttl 64 id 0 protocol 17 offset (bytes) 0 flags [none] length: 145 192.168.0.1 > 192.168.255.255) ns3::UdpHeader (length: 125 49153 > 8833) Payload (size=117) 
r 0.000446037 OfdmRate6Mbps /NodeList/7/DeviceList/0/$ns3::WifiNetDevice/Phy/State/RxOk ns3::WifiMacHeader (QOSDATA ) ns3::LlcSnapHeader (type 0x800) ns3::Ipv4Header (tos 0x0 DSCP Default ECN Not-ECT ttl 64 id 0 protocol 17 offset (bytes) 0 flags [none] length: 145 192.168.0.1 > 192.168.255.255) ns3::UdpHeader (length: 125 49153 > 8833) Payload (size=117) 
r 0.00044604 OfdmRate6Mbps /NodeList/1/DeviceList/0/$ns3::WifiNetDevice/Phy/State/RxOk ns3::WifiMacHeader (QOSDATA ) ns3::LlcSnapHeader (type 0x800) ns3::Ipv4Header (tos 0x0 DSCP Default ECN Not-ECT ttl 64 id 0 protocol 17 offset (bytes) 0 flags [none] length: 145 192.168.0.1 > 192.168.255.255) ns3::UdpHeader (length: 125 49153 > 8833) Payload (size=117) 
r 0.000446062 OfdmRate6Mbps /NodeList/3/DeviceList/0/$ns3::WifiNetDevice/Phy/State/RxOk ns3::WifiMacHeader (QOSDATA ) ns3::LlcSnapHeader (type 0x800) ns3::Ipv4Header (tos 0x0 DSCP Default ECN Not-ECT ttl 64 id 0 protocol 17 offset (bytes) 0 flags [none] length: 145 192.168.0.1 > 192.168.255.255) ns3::UdpHeader (length: 125 49153 > 8833) Payload (size=117) 
r 0.000446082 OfdmRate6Mbps /NodeList/10/DeviceList/0/$ns3::WifiNetDevice/Phy/State/RxOk ns3::WifiMacHeader (QOSDATA ) ns3::LlcSnapHeader (type 0x800) ns3::Ipv4Header (tos 0x0 DSCP Default ECN Not-ECT ttl 64 id 0 protocol 17 offset (bytes) 0 flags [none] length: 145 192.168.0.1 > 192.168.255.255) ns3::UdpHeader (length: 125 49153 > 8833) Payload (size=117) 
r 0.000446088 OfdmRate6Mbps /NodeList/8/DeviceList/0/$ns3::WifiNetDevice/Phy/State/RxOk ns3::WifiMacHeader (QOSDATA ) ns3::LlcSnapHeader (type 0x800) ns3::Ipv4Header (tos 0x0 DSCP Default ECN Not-ECT ttl 64 id 0 protocol 17 offset (bytes) 0 flags [none] length: 145 192.168.0.1 > 192.168.255.255) ns3::UdpHeader (length: 125 49153 > 8833) Payload (size=117) 
t 0.00345001 /NodeList/2/DeviceList/0/$ns3::WifiNetDevice/Phy/State/Tx OfdmRate6Mbps ns3::WifiMacHeader (QOSDATA ) ns3::LlcSnapHeader (type 0x806) ns3::ArpHeader (request source mac: 00-06-00:00:00:00:00:03 source ipv4: 192.168.0.3 dest ipv4: 192.168.0.1) 
t 0.00345002 /NodeList/6/DeviceList/0/$ns3::WifiNetDevice/Phy/State/Tx OfdmRate6Mbps ns3::WifiMacHeader (QOSDATA ) ns3::LlcSnapHeader (type 0x806) ns3::ArpHeader (request source mac: 00-06-00:00:00:00:00:07 source ipv4: 192.168.0.7 dest ipv4: 192.168.0.1) 
t 0.00345004 /NodeList/5/DeviceList/0/$ns3::WifiNetDevice/Phy/State/Tx OfdmRate6Mbps ns3::WifiMacHeader (QOSDATA ) ns3::LlcSnapHeader (type 0x806) ns3::ArpHeader (request source mac: 00-06-00:00:00:00:00:06 source ipv4: 192.168.0.6 dest ipv4: 192.168.0.1) 
t 0.00345009 /NodeList/8/DeviceList/0/$ns3::WifiNetDevice/Phy/State/Tx OfdmRate6Mbps ns3::WifiMacHeader (QOSDATA ) ns3::LlcSnapHeader (type 0x806) ns3::ArpHeader (request source mac: 00-06-00:00:00:00:00:09 source ipv4: 192.168.0.9 dest ipv4: 192.168.0.1) 
r 0.00356204 OfdmRate6Mbps /NodeList/4/DeviceList/0/$ns3::WifiNetDevice/Phy/State/RxOk ns3::WifiMacHeader (QOSDATA ) ns3::LlcSnapHeader (type 0x806) ns3::ArpHeader (request source mac: 00-06-00:00:00:00:00:03 source ipv4: 192.168.0.3 dest ipv4: 192.168.0.1) 
r 0.00356205 OfdmRate6Mbps /NodeList/9/DeviceList/0/$ns3::WifiNetDevice/Phy/State/RxOk ns3::WifiMacHeader (QOSDATA ) ns3::LlcSnapHeader (type 0x806) ns3::ArpHeader (request source mac: 00-06-00:00:00:00:00:06 source ipv4: 192.168.0.6 dest ipv4: 192.168.0.1) 
r 0.00356209 OfdmRate6Mbps /NodeList/10/DeviceList/0/$ns3::WifiNetDevice/Phy/State/RxOk ns3::WifiMacHeader (QOSDATA ) ns3::LlcSnapHeader (type 0x806) ns3::ArpHeader (request source mac: 00-06-00:00:00:00:00:09 source ipv4: 192.168.0.9 dest ipv4: 192.168.0.1) 
r 0.00356211 OfdmRate6Mbps /NodeList/3/DeviceList/0/$ns3::WifiNetDevice/Phy/State/RxOk ns3::WifiMacHeader (QOSDATA ) ns3::LlcSnapHeader (type 0x806) ns3::ArpHeader (request source mac: 00-06-00:00:00:00:00:09 source ipv4: 192.168.0.9 dest ipv4: 192.168.0.1) 
t 0.00545014 /NodeList/1/DeviceList/0/$ns3::WifiNetDevice/Phy/State/Tx OfdmRate6Mbps ns3::WifiMacHeader (QOSDATA ) ns3::LlcSnapHeader (type 0x806) ns3::ArpHeader (request source mac: 00-06-00:00:00:00:00:02 source ipv4: 192.168.0.2 dest ipv4: 192.168.0.1) 
r 0.00556216 OfdmRate6Mbps /NodeList/3/DeviceList/0/$ns3::WifiNetDevice/Phy/State/RxOk ns3::WifiMacHeader (QOSDATA ) ns3::LlcSnapHeader (type 0x806) ns3::ArpHeader (request source mac: 00-06-00:00:00:00:00:02 source ipv4: 192.168.0.2 dest ipv4: 192.168.0.1) 
r 0.00556216 OfdmRate6Mbps /NodeList/4/DeviceList/0/$ns3::WifiNetDevice/Phy/State/RxOk ns3::WifiMacHeader (QOSDATA ) ns3::LlcSnapHeader (type 0x806) ns3::ArpHeader (request source mac: 00-06-00:00:00:00:00:02 source ipv4: 192.168.0.2 dest ipv4: 192.168.0.1) 
r 0.00556216 OfdmRate6Mbps /NodeList/2/DeviceList/0/$ns3::WifiNetDevice/Phy/State/RxOk ns3::WifiMacHeader (QOSDATA ) ns3::LlcSnapHeader (type 0x806) ns3::ArpHeader (request source mac: 00-06-00:00:00:00:00:02 source ipv4: 192.168.0.2 dest ipv4: 192.168.0.1) 
r 0.00556218 OfdmRate6Mbps /NodeList/0/DeviceList/0/$ns3::WifiNetDevice/Phy/State/RxOk ns3::WifiMacHeader (QOSDATA ) ns3::LlcSnapHeader (type 0x806) ns3::ArpHeader (request source mac: 00-06-00:00:00:00:00:02 source ipv4: 192.168.0.2 dest ipv4: 192.168.0.1) 
r 0.00556218 OfdmRate6Mbps /NodeList/5/DeviceList/0/$ns3::WifiNetDevice/Phy/State/RxOk ns3::WifiMacHeader (QOSDATA ) ns3::LlcSnapHeader (type 0x806) ns3::ArpHeader (request source mac: 00-06-00:00:00:00:00:02 source ipv4: 192.168.0.2 dest ipv4: 192.168.0.1) 
r 0.00556218 OfdmRate6Mbps /NodeList/10/DeviceList/0/$ns3::WifiNetDevice/Phy/State/RxOk ns3::WifiMacHeader (QOSDATA ) ns3::LlcSnapHeader (type 0x806) ns3::ArpHeader (request source mac: 00-06-00:00:00:00:00:02 source ipv4: 192.168.0.2 dest ipv4: 192.168.0.1) 
r 0.00556218 OfdmRate6Mbps /NodeList/9/DeviceList/0/$ns3::WifiNetDevice/Phy/State/RxOk ns3::WifiMacHeader (QOSDATA ) ns3::LlcSnapHeader (type 0x806) ns3::ArpHeader (request source mac: 00-06-00:00:00:00:00:02 source ipv4: 192.168.0.2 dest ipv4: 192.168.0.1) 
r 0.00556218 OfdmRate6Mbps /NodeList/8/DeviceList/0/$ns3::WifiNetDevice/Phy/State/RxOk ns3::WifiMacHeader (QOSDATA ) ns3::LlcSnapHeader (type 0x806) ns3::ArpHeader (request source mac: 00-06-00:00:00:00:00:02 source ipv4: 192.168.0.2 dest ipv4: 192.168.0.1) 
r 0.00556219 OfdmRate6Mbps /NodeList/6/DeviceList/0/$ns3::WifiNetDevice/Phy/State/RxOk ns3::WifiMacHeader (QOSDATA ) ns3::LlcSnapHeader (type 0x806) ns3::ArpHeader (request source mac: 00-06-00:00:00:00:00:02 source ipv4: 192.168.0.2 dest ipv4: 192.168.0.1) 
r 0.0055622 OfdmRate6Mbps /NodeList/7/DeviceList/0/$ns3::WifiNetDevice/Phy/State/RxOk ns3::WifiMacHeader (QOSDATA ) ns3::LlcSnapHeader (type 0x806) ns3::ArpHeader (request source mac: 00-06-00:00:00:00:00:02 source ipv4: 192.168.0.2 dest ipv4: 192.168.0.1) 
t 0.00560518 /NodeList/0/DeviceList/0/$ns3::WifiNetDevice/Phy/State/Tx OfdmRate6Mbps ns3::WifiMacHeader (MGT_ACTION ToDS=0, FromDS=0, MoreFrag=0, Retry=0, MoreData=0 Duration/ID=60us, DA=00:00:00:00:00:02, SA=00:00:00:00:00:01, BSSID=00:00:00:00:00:01, FragNumber=0, SeqNumber=1) ns3::WifiActionHeader (category=BlockAck, value=0) ns3::MgtAddBaRequestHeader () 
r 0.00568119 OfdmRate6Mbps /NodeList/2/DeviceList/0/$ns3::WifiNetDevice/Phy/State/RxOk ns3::WifiMacHeader (MGT_ACTION ToDS=0, FromDS=0, MoreFrag=0, Retry=0, MoreData=0 Duration/ID=60us, DA=00:00:00:00:00:02, SA=00:00:00:00:00:01, BSSID=00:00:00:00:00:01, FragNumber=0, SeqNumber=1) ns3::WifiActionHeader (category=BlockAck, value=0) ns3::MgtAddBaRequestHeader () 
r 0.00568119 OfdmRate6Mbps /NodeList/6/DeviceList/0/$ns3::WifiNetDevice/Phy/State/RxOk ns3::WifiMacHeader (MGT_ACTION ToDS=0, FromDS=0, MoreFrag=0, Retry=0, MoreData=0 Duration/ID=60us, DA=00:00:00:00:00:02, SA=00:00:00:00:00:01, BSSID=00:00:00:00:00:01, FragNumber=0, SeqNumber=1) ns3::WifiActionHeader (category=BlockAck, value=0) ns3::MgtAddBaRequestHeader () 
r 0.00568121 OfdmRate6Mbps /NodeList/9/DeviceList/0/$ns3::WifiNetDevice/Phy/State/RxOk ns3::WifiMacHeader (MGT_ACTION ToDS=0, FromDS=0, MoreFrag=0, Retry=0, MoreData=0 Duration/ID=60us, DA=00:00:00:00:00:02, SA=00:00:00:00:00:01, BSSID=00:00:00:00:00:01, FragNumber=0, SeqNumber=1) ns3::WifiActionHeader (category=BlockAck, value=0) ns3::MgtAddBaRequestHeader () 
r 0.00568121 OfdmRate6Mbps /NodeList/4/DeviceList/0/$ns3::WifiNetDevice/Phy/State/RxOk ns3::WifiMacHeader (MGT_ACTION ToDS=0, FromDS=0, MoreFrag=0, Retry=0, MoreData=0 Duration/ID=60us, DA=00:00:00:00:00:02, SA=00:00:00:00:00:01, BSSID=00:00:00:00:00:01, FragNumber=0, SeqNumber=1) ns3::WifiActionHeader (category=BlockAck, value=0) ns3::MgtAddBaRequestHeader () 
r 0.00568121 OfdmRate6Mbps /NodeList/5/DeviceList/0/$ns3::WifiNetDevice/Phy/State/RxOk ns3::WifiMacHeader (MGT_ACTION ToDS=0, FromDS=0, MoreFrag=0, Retry=0, MoreData=0 Duration/ID=60us, DA=00:00:00:00:00:02, SA=00:00:00:00:00:01, BSSID=00:00:00:00:00:01, FragNumber=0, SeqNumber=1) ns3::WifiActionHeader (category=BlockAck, value=0) ns3::MgtAddBaRequestHeader () 
r 0.00568121 OfdmRate6Mbps /NodeList/7/DeviceList/0/$ns3::WifiNetDevice/Phy/State/RxOk ns3::WifiMacHeader (MGT_ACTION ToDS=0, FromDS=0, MoreFrag=0, Retry=0, MoreData=0 Duration/ID=60us, DA=00:00:00:00:00:02, SA=00:00:00:00:00:01, BSSID=00:00:00:00:00:01, FragNumber=0, SeqNumber=1) ns3::WifiActionHeader (category=BlockAck, value=0) ns3::MgtAddBaRequestHeader () 
r 0.00568122 OfdmRate6Mbps /NodeList/1/DeviceList/0/$ns3::WifiNetDevice/Phy/State/RxOk ns3::WifiMacHeader (MGT_ACTION ToDS=0, FromDS=0, MoreFrag=0, Retry=0, MoreData=0 Duration/ID=60us, DA=00:00:00:00:00:02, SA=00:00:00:00:00:01, BSSID=00:00:00:00:00:01, FragNumber=0, SeqNumber=1) ns3::WifiActionHeader (category=BlockAck, value=0) ns3::MgtAddBaRequestHeader () 
r 0.00568124 OfdmRate6Mbps /NodeList/3/DeviceList/0/$ns3::WifiNetDevice/Phy/State/RxOk ns3::WifiMacHeader (MGT_ACTION ToDS=0, FromDS=0, MoreFrag=0, Retry=0, MoreData=0 Duration/ID=60us, DA=00:00:00:00:00:02, SA=00:00:00:00:00:01, BSSID=00:00:00:00:00:01, FragNumber=0, SeqNumber=1) ns3::WifiActionHeader (category=BlockAck, value=0) ns3::MgtAddBaRequestHeader () 
r 0.00568126 OfdmRate6Mbps /NodeList/10/DeviceList/0/$ns3::WifiNetDevice/Phy/State/RxOk ns3::WifiMacHeader (MGT_ACTION ToDS=0, FromDS=0, MoreFrag=0, Retry=0, MoreData=0 Duration/ID=60us, DA=00:00:00:00:00:02, SA=00:00:00:00:00:01, BSSID=00:00:00:00:00:01, FragNumber=0, SeqNumber=1) ns3::WifiActionHeader (category=BlockAck, value=0) ns3::MgtAddBaRequestHeader () 
r 0.00568126 OfdmRate6Mbps /NodeList/8/DeviceList/0/$ns3::WifiNetDevice/Phy/State/RxOk ns3::WifiMacHeader (MGT_ACTION ToDS=0, FromDS=0, MoreFrag=0, Retry=0, MoreData=0 Duration/ID=60us, DA=00:00:00:00:00:02, SA=00:00:00:00:00:01, BSSID=00:00:00:00:00:01, FragNumber=0, SeqNumber=1) ns3::WifiActionHeader (category=BlockAck, value=0) ns3::MgtAddBaRequestHeader () 
t 0.00569722 /NodeList/1/DeviceList/0/$ns3::WifiNetDevice/Phy/State/Tx OfdmRate6Mbps ns3::WifiMacHeader (CTL_ACK Duration/ID=0us, RA=00:00:00:00:00:01) 
r 0.00574124 OfdmRate6Mbps /NodeList/3/DeviceList/0/$ns3::WifiNetDevice/Phy/State/RxOk ns3::WifiMacHeader (CTL_ACK Duration/ID=0us, RA=00:00:00:00:00:01) 
r 0.00574124 OfdmRate6Mbps /NodeList/4/DeviceList/0/$ns3::WifiNetDevice/Phy/State/RxOk ns3::WifiMacHeader (CTL_ACK Duration/ID=0us, RA=00:00:00:00:00:01) 
r 0.00574124 OfdmRate6Mbps /NodeList/2/DeviceList/0/$ns3::WifiNetDevice/Phy/State/RxOk ns3::WifiMacHeader (CTL_ACK Duration/ID=0us, RA=00:00:00:00:00:01) 
r 0.00574126 OfdmRate6Mbps /NodeList/0/DeviceList/0/$ns3::WifiNetDevice/Phy/State/RxOk ns3::WifiMacHeader (CTL_ACK Duration/ID=0us, RA=00:00:00:00:00:01) 
r 0.00574126 OfdmRate6Mbps /NodeList/5/DeviceList/0/$ns3::WifiNetDevice/Phy/State/RxOk ns3::WifiMacHeader (CTL_ACK Duration/ID=0us, RA=00:00:00:00:00:01) 
r 0.00574126 OfdmRate6Mbps /NodeList/10/DeviceList/0/$ns3::WifiNetDevice/Phy/State/RxOk ns3::WifiMacHeader (CTL_ACK Duration/ID=0us, RA=00:00:00:00:00:01) 
r 0.00574126 OfdmRate6Mbps /NodeList/9/DeviceList/0/$ns3::WifiNetDevice/Phy/State/RxOk ns3::WifiMacHeader (CTL_ACK Duration/ID=0us, RA=00:00:00:00:00:01) 
r 0.00574126 OfdmRate6Mbps /NodeList/8/DeviceList/0/$ns3::WifiNetDevice/Phy/State/RxOk ns3::WifiMacHeader (CTL_ACK Duration/ID=0us, RA=00:00:00:00:00:01) 
r 0.00574127 OfdmRate6Mbps /NodeList/6/DeviceList/0/$ns3::WifiNetDevice/Phy/State/RxOk ns3::WifiMacHeader (CTL_ACK Duration/ID=0us, RA=00:00:00:00:00:01) 
r 0.00574128 OfdmRate6Mbps /NodeList/7/DeviceList/0/$ns3::WifiNetDevice/Phy/State/RxOk ns3::WifiMacHeader (CTL_ACK Duration/ID=0us, RA=00:00:00:00:00:01) 
t 0.00584722 /NodeList/1/DeviceList/0/$ns3::WifiNetDevice/Phy/State/Tx OfdmRate6Mbps ns3::WifiMacHeader (MGT_ACTION ToDS=0, FromDS=0, MoreFrag=0, Retry=0, MoreData=0 Duration/ID=60us, DA=00:00:00:00:00:01, SA=00:00:00:00:00:02, BSSID=00:00:00:00:00:02, FragNumber=0, SeqNumber=1) ns3::WifiActionHeader (category=BlockAck, value=PeerLinkOpen) ns3::MgtAddBaResponseHeader (status code=success) 
r 0.00592324 OfdmRate6Mbps /NodeList/3/DeviceList/0/$ns3::WifiNetDevice/Phy/State/RxOk ns3::WifiMacHeader (MGT_ACTION ToDS=0, FromDS=0, MoreFrag=0, Retry=0, MoreData=0 Duration/ID=60us, DA=00:00:00:00:00:01, SA=00:00:00:00:00:02, BSSID=00:00:00:00:00:02, FragNumber=0, SeqNumber=1) ns3::WifiActionHeader (category=BlockAck, value=PeerLinkOpen) ns3::MgtAddBaResponseHeader (status code=success) 
r 0.00592324 OfdmRate6Mbps /NodeList/4/DeviceList/0/$ns3::WifiNetDevice/Phy/State/RxOk ns3::WifiMacHeader (MGT_ACTION ToDS=0, FromDS=0, MoreFrag=0, Retry=0, MoreData=0 Duration/ID=60us, DA=00:00:00:00:00:01, SA=00:00:00:00:00:02, BSSID=00:00:00:00:00:02, FragNumber=0, SeqNumber=1) ns3::WifiActionHeader (category=BlockAck, value=PeerLinkOpen) ns3::MgtAddBaResponseHeader (status code=success) 
r 0.00592324 OfdmRate6Mbps /NodeList/2/DeviceList/0/$ns3::WifiNetDevice/Phy/State/RxOk ns3::WifiMacHeader (MGT_ACTION ToDS=0, FromDS=0, MoreFrag=0, Retry=0, MoreData=0 Duration/ID=60us, DA=00:00:00:00:00:01, SA=00:00:00:00:00:02, BSSID=00:00:00:00:00:02, FragNumber=0, SeqNumber=1) ns3::WifiActionHeader (category=BlockAck, value=PeerLinkOpen) ns3::MgtAddBaResponseHeader (status code=success) 
r 0.00592326 OfdmRate6Mbps /NodeList/0/DeviceList/0/$ns3::WifiNetDevice/Phy/State/RxOk ns3::WifiMacHeader (MGT_ACTION ToDS=0, FromDS=0, MoreFrag=0, Retry=0, MoreData=0 Duration/ID=60us, DA=00:00:00:00:00:01, SA=00:00:00:00:00:02, BSSID=00:00:00:00:00:02, FragNumber=0, SeqNumber=1) ns3::WifiActionHeader (category=BlockAck, value=PeerLinkOpen) ns3::MgtAddBaResponseHeader (status code=success) 
r 0.00592326 OfdmRate6Mbps /NodeList/5/DeviceList/0/$ns3::WifiNetDevice/Phy/State/RxOk ns3::WifiMacHeader (MGT_ACTION ToDS=0, FromDS=0, MoreFrag=0, Retry=0, MoreData=0 Duration/ID=60us, DA=00:00:00:00:00:01, SA=00:00:00:00:00:02, BSSID=00:00:00:00:00:02, FragNumber=0, SeqNumber=1) ns3::WifiActionHeader (category=BlockAck, value=PeerLinkOpen) ns3::MgtAddBaResponseHeader (status code=success) 
r 0.00592326 OfdmRate6Mbps /NodeList/10/DeviceList/0/$ns3::WifiNetDevice/Phy/State/RxOk ns3::WifiMacHeader (MGT_ACTION ToDS=0, FromDS=0, MoreFrag=0, Retry=0, MoreData=0 Duration/ID=60us, DA=00:00:00:00:00:01, SA=00:00:00:00:00:02, BSSID=00:00:00:00:00:02, FragNumber=0, SeqNumber=1) ns3::WifiActionHeader (category=BlockAck, value=PeerLinkOpen) ns3::MgtAddBaResponseHeader (status code=success) 
r 0.00592326 OfdmRate6Mbps /NodeList/9/DeviceList/0/$ns3::WifiNetDevice/Phy/State/RxOk ns3::WifiMacHeader (MGT_ACTION ToDS=0, FromDS=0, MoreFrag=0, Retry=0, MoreData=0 Duration/ID=60us, DA=00:00:00:00:00:01, SA=00:00:00:00:00:02, BSSID=00:00:00:00:00:02, FragNumber=0, SeqNumber=1) ns3::WifiActionHeader (category=BlockAck, value=PeerLinkOpen) ns3::MgtAddBaResponseHeader (status code=success) 
r 0.00592326 OfdmRate6Mbps /NodeList/8/DeviceList/0/$ns3::WifiNetDevice/Phy/State/RxOk ns3::WifiMacHeader (MGT_ACTION ToDS=0, FromDS=0, MoreFrag=0, Retry=0, MoreData=0 Duration/ID=60us, DA=00:00:00:00:00:01, SA=00:00:00:00:00:02, BSSID=00:00:00:00:00:02, FragNumber=0, SeqNumber=1) ns3::WifiActionHeader (category=BlockAck, value=PeerLinkOpen) ns3::MgtAddBaResponseHeader (status code=success) 
r 0.00592327 OfdmRate6Mbps /NodeList/6/DeviceList/0/$ns3::WifiNetDevice/Phy/State/RxOk ns3::WifiMacHeader (MGT_ACTION ToDS=0, FromDS=0, MoreFrag=0, Retry=0, MoreData=0 Duration/ID=60us, DA=00:00:00:00:00:01, SA=00:00:00:00:00:02, BSSID=00:00:00:00:00:02, FragNumber=0, SeqNumber=1) ns3::WifiActionHeader (category=BlockAck, value=PeerLinkOpen) ns3::MgtAddBaResponseHeader (status code=success) 
r 0.00592329 OfdmRate6Mbps /NodeList/7/DeviceList/0/$ns3::WifiNetDevice/Phy/State/RxOk ns3::WifiMacHeader (MGT_ACTION ToDS=0, FromDS=0, MoreFrag=0, Retry=0, MoreData=0 Duration/ID=60us, DA=00:00:00:00:00:01, SA=00:00:00:00:00:02, BSSID=00:00:00:00:00:02, FragNumber=0, SeqNumber=1) ns3::WifiActionHeader (category=BlockAck, value=PeerLinkOpen) ns3::MgtAddBaResponseHeader (status code=success) 
t 0.00593926 /NodeList/0/DeviceList/0/$ns3::WifiNetDevice/Phy/State/Tx OfdmRate6Mbps ns3::WifiMacHeader (CTL_ACK Duration/ID=0us, RA=00:00:00:00:00:02) 
r 0.00598327 OfdmRate6Mbps /NodeList/2/DeviceList/0/$ns3::WifiNetDevice/Phy/State/RxOk ns3::WifiMacHeader (CTL_ACK Duration/ID=0us, RA=00:00:00:00:00:02) 
r 0.00598327 OfdmRate6Mbps /NodeList/6/DeviceList/0/$ns3::WifiNetDevice/Phy/State/RxOk ns3::WifiMacHeader (CTL_ACK Duration/ID=0us, RA=00:00:00:00:00:02) 
r 0.00598329 OfdmRate6Mbps /NodeList/9/DeviceList/0/$ns3::WifiNetDevice/Phy/State/RxOk ns3::WifiMacHeader (CTL_ACK Duration/ID=0us, RA=00:00:00:00:00:02) 
r 0.00598329 OfdmRate6Mbps /NodeList/4/DeviceList/0/$ns3::WifiNetDevice/Phy/State/RxOk ns3::WifiMacHeader (CTL_ACK Duration/ID=0us, RA=00:00:00:00:00:02) 
r 0.00598329 OfdmRate6Mbps /NodeList/5/DeviceList/0/$ns3::WifiNetDevice/Phy/State/RxOk ns3::WifiMacHeader (CTL_ACK Duration/ID=0us, RA=00:00:00:00:00:02) 
r 0.00598329 OfdmRate6Mbps /NodeList/7/DeviceList/0/$ns3::WifiNetDevice/Phy/State/RxOk ns3::WifiMacHeader (CTL_ACK Duration/ID=0us, RA=00:00:00:00:00:02) 
r 0.0059833 OfdmRate6Mbps /NodeList/1/DeviceList/0/$ns3::WifiNetDevice/Phy/State/RxOk ns3::WifiMacHeader (CTL_ACK Duration/ID=0us, RA=00:00:00:00:00:02) 
r 0.00598332 OfdmRate6Mbps /NodeList/3/DeviceList/0/$ns3::WifiNetDevice/Phy/State/RxOk ns3::WifiMacHeader (CTL_ACK Duration/ID=0us, RA=00:00:00:00:00:02) 
r 0.00598334 OfdmRate6Mbps /NodeList/10/DeviceList/0/$ns3::WifiNetDevice/Phy/State/RxOk ns3::WifiMacHeader (CTL_ACK Duration/ID=0us, RA=00:00:00:00:00:02) 
r 0.00598334 OfdmRate6Mbps /NodeList/8/DeviceList/0/$ns3::WifiNetDevice/Phy/State/RxOk ns3::WifiMacHeader (CTL_ACK Duration/ID=0us, RA=00:00:00:00:00:02) 
t 0.00602626 /NodeList/0/DeviceList/0/$ns3::WifiNetDevice/Phy/State/Tx HeMcs8 ns3::AmpduSubframeHeader (EOF = 1, length = 66, signature = 0xN) ns3::WifiMacHeader (QOSDATA ) ns3::LlcSnapHeader (type 0x806) ns3::ArpHeader (reply source mac: 00-06-00:00:00:00:00:01 source ipv4: 192.168.0.1 dest mac: 00-06-00:00:00:00:00:02 dest ipv4: 192.168.0.2) 
r 0.00608627 HeMcs8 /NodeList/2/DeviceList/0/$ns3::WifiNetDevice/Phy/State/RxOk ns3::AmpduSubframeHeader (EOF = 1, length = 66, signature = 0xN) ns3::WifiMacHeader (QOSDATA ) ns3::LlcSnapHeader (type 0x806) ns3::ArpHeader (reply source mac: 00-06-00:00:00:00:00:01 source ipv4: 192.168.0.1 dest mac: 00-06-00:00:00:00:00:02 dest ipv4: 192.168.0.2) 
r 0.00608627 HeMcs8 /NodeList/6/DeviceList/0/$ns3::WifiNetDevice/Phy/State/RxOk ns3::AmpduSubframeHeader (EOF = 1, length = 66, signature = 0xN) ns3::WifiMacHeader (QOSDATA ) ns3::LlcSnapHeader (type 0x806) ns3::ArpHeader (reply source mac: 00-06-00:00:00:00:00:01 source ipv4: 192.168.0.1 dest mac: 00-06-00:00:00:00:00:02 dest ipv4: 192.168.0.2) 
r 0.00608629 HeMcs8 /NodeList/9/DeviceList/0/$ns3::WifiNetDevice/Phy/State/RxOk ns3::AmpduSubframeHeader (EOF = 1, length = 66, signature = 0xN) ns3::WifiMacHeader (QOSDATA ) ns3::LlcSnapHeader (type 0x806) ns3::ArpHeader (reply source mac: 00-06-00:00:00:00:00:01 source ipv4: 192.168.0.1 dest mac: 00-06-00:00:00:00:00:02 dest ipv4: 192.168.0.2) 
r 0.00608629 HeMcs8 /NodeList/4/DeviceList/0/$ns3::WifiNetDevice/Phy/State/RxOk ns3::AmpduSubframeHeader (EOF = 1, length = 66, signature = 0xN) ns3::WifiMacHeader (QOSDATA ) ns3::LlcSnapHeader (type 0x806) ns3::ArpHeader (reply source mac: 00-06-00:00:00:00:00:01 source ipv4: 192.168.0.1 dest mac: 00-06-00:00:00:00:00:02 dest ipv4: 192.168.0.2) 
r 0.00608629 HeMcs8 /NodeList/5/DeviceList/0/$ns3::WifiNetDevice/Phy/State/RxOk ns3::AmpduSubframeHeader (EOF = 1, length = 66, signature = 0xN) ns3::WifiMacHeader (QOSDATA ) ns3::LlcSnapHeader (type 0x806) ns3::ArpHeader (reply source mac: 00-06-00:00:00:00:00:01 source ipv4: 192.168.0.1 dest mac: 00-06-00:00:00:00:00:02 dest ipv4: 192.168.0.2) 
r 0.00608629 HeMcs8 /NodeList/7/DeviceList/0/$ns3::WifiNetDevice/Phy/State/RxOk ns3::AmpduSubframeHeader (EOF = 1, length = 66, signature = 0xN) ns3::WifiMacHeader (QOSDATA ) ns3::LlcSnapHeader (type 0x806) ns3::ArpHeader (reply source mac: 00-06-00:00:00:00:00:01 source ipv4: 192.168.0.1 dest mac: 00-06-00:00:00:00:00:02 dest ipv4: 192.168.0.2) 
r 0.0060863 HeMcs8 /NodeList/1/DeviceList/0/$ns3::WifiNetDevice/Phy/State/RxOk ns3::AmpduSubframeHeader (EOF = 1, length = 66, signature = 0xN) ns3::WifiMacHeader (QOSDATA ) ns3::LlcSnapHeader (type 0x806) ns3::ArpHeader (reply source mac: 00-06-00:00:00:00:00:01 source ipv4: 192.168.0.1 dest mac: 00-06-00:00:00:00:00:02 dest ipv4: 192.168.0.2) 
t 0.0061023 /NodeList/1/DeviceList/0/$ns3::WifiNetDevice/Phy/State/Tx OfdmRate24Mbps ns3::WifiMacHeader (CTL_ACK Duration/ID=0us, RA=00:00:00:00:00:01) 
r 0.00613032 OfdmRate24Mbps /NodeList/3/DeviceList/0/$ns3::WifiNetDevice/Phy/State/RxOk ns3::WifiMacHeader (CTL_ACK Duration/ID=0us, RA=00:00:00:00:00:01) 
r 0.00613032 OfdmRate24Mbps /NodeList/4/DeviceList/0/$ns3::WifiNetDevice/Phy/State/RxOk ns3::WifiMacHeader (CTL_ACK Duration/ID=0us, RA=00:00:00:00:00:01) 
r 0.00613032 OfdmRate24Mbps /NodeList/2/DeviceList/0/$ns3::WifiNetDevice/Phy/State/RxOk ns3::WifiMacHeader (CTL_ACK Duration/ID=0us, RA=00:00:00:00:00:01) 
r 0.00613034 OfdmRate24Mbps /NodeList/0/DeviceList/0/$ns3::WifiNetDevice/Phy/State/RxOk ns3::WifiMacHeader (CTL_ACK Duration/ID=0us, RA=00:00:00:00:00:01) 
r 0.00613034 OfdmRate24Mbps /NodeList/5/DeviceList/0/$ns3::WifiNetDevice/Phy/State/RxOk ns3::WifiMacHeader (CTL_ACK Duration/ID=0us, RA=00:00:00:00:00:01) 
r 0.00613034 OfdmRate24Mbps /NodeList/10/DeviceList/0/$ns3::WifiNetDevice/Phy/State/RxOk ns3::WifiMacHeader (CTL_ACK Duration/ID=0us, RA=00:00:00:00:00:01) 
r 0.00613034 OfdmRate24Mbps /NodeList/9/DeviceList/0/$ns3::WifiNetDevice/Phy/State/RxOk ns3::WifiMacHeader (CTL_ACK Duration/ID=0us, RA=00:00:00:00:00:01) 
r 0.00613034 OfdmRate24Mbps /NodeList/8/DeviceList/0/$ns3::WifiNetDevice/Phy/State/RxOk ns3::WifiMacHeader (CTL_ACK Duration/ID=0us, RA=00:00:00:00:00:01) 
r 0.00613035 OfdmRate24Mbps /NodeList/6/DeviceList/0/$ns3::WifiNetDevice/Phy/State/RxOk ns3::WifiMacHeader (CTL_ACK Duration/ID=0us, RA=00:00:00:00:00:01) 
r 0.00613036 OfdmRate24Mbps /NodeList/7/DeviceList/0/$ns3::WifiNetDevice/Phy/State/RxOk ns3::WifiMacHeader (CTL_ACK Duration/ID=0us, RA=00:00:00:00:00:01) 
t 0.0062093 /NodeList/1/DeviceList/0/$ns3::WifiNetDevice/Phy/State/Tx OfdmRate6Mbps ns3::WifiMacHeader (MGT_ACTION ToDS=0, FromDS=0, MoreFrag=0, Retry=0, MoreData=0 Duration/ID=60us, DA=00:00:00:00:00:01, SA=00:00:00:00:00:02, BSSID=00:00:00:00:00:02, FragNumber=0, SeqNumber=2) ns3::WifiActionHeader (category=BlockAck, value=0) ns3::MgtAddBaRequestHeader () 
r 0.00628532 OfdmRate6Mbps /NodeList/3/DeviceList/0/$ns3::WifiNetDevice/Phy/State/RxOk ns3::WifiMacHeader (MGT_ACTION ToDS=0, FromDS=0, MoreFrag=0, Retry=0, MoreData=0 Duration/ID=60us, DA=00:00:00:00:00:01, SA=00:00:00:00:00:02, BSSID=00:00:00:00:00:02, FragNumber=0, SeqNumber=2) ns3::WifiActionHeader (category=BlockAck, value=0) ns3::MgtAddBaRequestHeader () 
r 0.00628532 OfdmRate6Mbps /NodeList/4/DeviceList/0/$ns3::WifiNetDevice/Phy/State/RxOk ns3::WifiMacHeader (MGT_ACTION ToDS=0, FromDS=0, MoreFrag=0, Retry=0, MoreData=0 Duration/ID=60us, DA=00:00:00:00:00:01, SA=00:00:00:00:00:02, BSSID=00:00:00:00:00:02, FragNumber=0, SeqNumber=2) ns3::WifiActionHeader (category=BlockAck, value=0) ns3::MgtAddBaRequestHeader () 
r 0.00628532 OfdmRate6Mbps /NodeList/2/DeviceList/0/$ns3::WifiNetDevice/Phy/State/RxOk ns3::WifiMacHeader (MGT_ACTION ToDS=0, FromDS=0, MoreFrag=0, Retry=0, MoreData=0 Duration/ID=60us, DA=00:00:00:00:00:01, SA=00:00:00:00:00:02, BSSID=00:00:00:00:00:02, FragNumber=0, SeqNumber=2) ns3::WifiActionHeader (category=BlockAck, value=0) ns3::MgtAddBaRequestHeader () 
r 0.00628534 OfdmRate6Mbps /NodeList/0/DeviceList/0/$ns3::WifiNetDevice/Phy/State/RxOk ns3::WifiMacHeader (MGT_ACTION ToDS=0, FromDS=0, MoreFrag=0, Retry=0, MoreData=0 Duration/ID=60us, DA=00:00:00:00:00:01, SA=00:00:00:00:00:02, BSSID=00:00:00:00:00:02, FragNumber=0, SeqNumber=2) ns3::WifiActionHeader (category=BlockAck, value=0) ns3::MgtAddBaRequestHeader () 
r 0.00628534 OfdmRate6Mbps /NodeList/5/DeviceList/0/$ns3::WifiNetDevice/Phy/State/RxOk ns3::WifiMacHeader (MGT_ACTION ToDS=0, FromDS=0, MoreFrag=0, Retry=0, MoreData=0 Duration/ID=60us, DA=00:00:00:00:00:01, SA=00:00:00:00:00:02, BSSID=00:00:00:00:00:02, FragNumber=0, SeqNumber=2) ns3::WifiActionHeader (category=BlockAck, value=0) ns3::MgtAddBaRequestHeader () 
r 0.00628534 OfdmRate6Mbps /NodeList/10/DeviceList/0/$ns3::WifiNetDevice/Phy/State/RxOk ns3::WifiMacHeader (MGT_ACTION ToDS=0, FromDS=0, MoreFrag=0, Retry=0, MoreData=0 Duration/ID=60us, DA=00:00:00:00:00:01, SA=00:00:00:00:00:02, BSSID=00:00:00:00:00:02, FragNumber=0, SeqNumber=2) ns3::WifiActionHeader (category=BlockAck, value=0) ns3::MgtAddBaRequestHeader () 
r 0.00628534 OfdmRate6Mbps /NodeList/9/DeviceList/0/$ns3::WifiNetDevice/Phy/State/RxOk ns3::WifiMacHeader (MGT_ACTION ToDS=0, FromDS=0, MoreFrag=0, Retry=0, MoreData=0 Duration/ID=60us, DA=00:00:00:00:00:01, SA=00:00:00:00:00:02, BSSID=00:00:00:00:00:02, FragNumber=0, SeqNumber=2) ns3::WifiActionHeader (category=BlockAck, value=0) ns3::MgtAddBaRequestHeader () 
r 0.00628534 OfdmRate6Mbps /NodeList/8/DeviceList/0/$ns3::WifiNetDevice/Phy/State/RxOk ns3::WifiMacHeader (MGT_ACTION ToDS=0, FromDS=0, MoreFrag=0, Retry=0, MoreData=0 Duration/ID=60us, DA=00:00:00:00:00:01, SA=00:00:00:00:00:02, BSSID=00:00:00:00:00:02, FragNumber=0, SeqNumber=2) ns3::WifiActionHeader (category=BlockAck, value=0) ns3::MgtAddBaRequestHeader () 
r 0.00628535 OfdmRate6Mbps /NodeList/6/DeviceList/0/$ns3::WifiNetDevice/Phy/State/RxOk ns3::WifiMacHeader (MGT_ACTION ToDS=0, FromDS=0, MoreFrag=0, Retry=0, MoreData=0 Duration/ID=60us, DA=00:00:00:00:00:01, SA=00:00:00:00:00:02, BSSID=00:00:00:00:00:02, FragNumber=0, SeqNumber=2) ns3::WifiActionHeader (category=BlockAck, value=0) ns3::MgtAddBaRequestHeader () 
r 0.00628537 OfdmRate6Mbps /NodeList/7/DeviceList/0/$ns3::WifiNetDevice/Phy/State/RxOk ns3::WifiMacHeader (MGT_ACTION ToDS=0, FromDS=0, MoreFrag=0, Retry=0, MoreData=0 Duration/ID=60us, DA=00:00:00:00:00:01, SA=00:00:00:00:00:02, BSSID=00:00:00:00:00:02, FragNumber=0, SeqNumber=2) ns3::WifiActionHeader (category=BlockAck, value=0) ns3::MgtAddBaRequestHeader () 
t 0.00630134 /NodeList/0/DeviceList/0/$ns3::WifiNetDevice/Phy/State/Tx OfdmRate6Mbps ns3::WifiMacHeader (CTL_ACK Duration/ID=0us, RA=00:00:00:00:00:02) 
r 0.00634535 OfdmRate6Mbps /NodeList/2/DeviceList/0/$ns3::WifiNetDevice/Phy/State/RxOk ns3::WifiMacHeader (CTL_ACK Duration/ID=0us, RA=00:00:00:00:00:02) 
r 0.00634535 OfdmRate6Mbps /NodeList/6/DeviceList/0/$ns3::WifiNetDevice/Phy/State/RxOk ns3::WifiMacHeader (CTL_ACK Duration/ID=0us, RA=00:00:00:00:00:02) 
r 0.00634537 OfdmRate6Mbps /NodeList/9/DeviceList/0/$ns3::WifiNetDevice/Phy/State/RxOk ns3::WifiMacHeader (CTL_ACK Duration/ID=0us, RA=00:00:00:00:00:02) 
r 0.00634537 OfdmRate6Mbps /NodeList/4/DeviceList/0/$ns3::WifiNetDevice/Phy/State/RxOk ns3::WifiMacHeader (CTL_ACK Duration/ID=0us, RA=00:00:00:00:00:02) 